TITLE="test case governed by poisson equation"
VARIABLES="x" "y" "u" "v" "sigmax"  "sigmay" "sigmaxy"
ZONE T="flow-field", N=       12,E=      10,ET=TRIANGLE, F=FEPOINT
    0.000000e+00    0.000000e+00   -3.200000e+01    6.000000e+00    7.000000e+00    9.000000e+00   -8.000000e+00
    0.000000e+00   -1.000000e+00   -1.600000e+01   -2.000000e+00    8.000000e+00    8.000000e+00   -8.000000e+00
    1.000000e+00    0.000000e+00   -2.600000e+01    8.000000e+00    6.666667e+00    1.066667e+01   -8.000000e+00
    1.000000e+00   -1.000000e+00   -8.000000e+00   -2.000000e+00    7.333333e+00    9.333333e+00   -8.000000e+00
    2.000000e+00    0.000000e+00   -2.000000e+01    1.200000e+01    4.666667e+00    1.066667e+01   -8.666667e+00
    2.000000e+00   -1.000000e+00    0.000000e+00    0.000000e+00    4.666667e+00    1.133333e+01   -8.666667e+00
    3.000000e+00    0.000000e+00   -1.200000e+01    8.000000e+00    8.000000e+00    8.000000e+00   -8.000000e+00
    3.000000e+00   -1.000000e+00    0.000000e+00    0.000000e+00    5.333333e+00    9.333333e+00   -8.666667e+00
    4.000000e+00    0.000000e+00   -4.000000e+00    4.000000e+00    8.000000e+00    8.000000e+00   -8.000000e+00
    4.000000e+00   -1.000000e+00    8.000000e+00   -4.000000e+00    8.000000e+00    8.000000e+00   -8.000000e+00
    5.000000e+00    0.000000e+00    4.000000e+00   -4.440892e-15    8.000000e+00    8.000000e+00   -8.000000e+00
    5.000000e+00   -1.000000e+00    1.600000e+01   -8.000000e+00    8.000000e+00    8.000000e+00   -8.000000e+00
       1       2       4
       1       3       4
       3       4       6
       3       5       6
       5       6       8
       5       7       8
       7       8      10
       7       9      10
       9      10      12
       9      11      12
